    1C
    1UUSER                                                              
    1UDATE              15.october.2017                                 
    1UTIME              19:36:32                                        
    1UHOST                                                              
    1UPGM               CalculiX                                        
    1UDIR                                                               
    1UDBN                                                               
    1UMAT    1MATERIAL-1_0                                              
    1UMAT    2MATERIAL-1_19                                             
    1UMAT    3MATERIAL-1                                                
    2C                         24958                                     1
 -1         1 9.20000E+00-2.00000E+01 0.00000E+00
 -1         2 8.40000E+00-2.00000E+01 0.00000E+00
 -1         3 7.60000E+00-2.00000E+01 0.00000E+00
 -1         4 6.80000E+00-2.00000E+01 0.00000E+00
 -1         5 6.00000E+00-2.00000E+01 0.00000E+00
 -1         6 5.20000E+00-2.00000E+01 0.00000E+00
 -1         7 4.00000E+00-2.00000E+01 0.00000E+00
 -1         8 3.20000E+00-2.00000E+01 0.00000E+00
 -1         9 2.40000E+00-2.00000E+01 0.00000E+00
 -1        10 1.60000E+00-2.00000E+01 0.00000E+00
 -1        11 8.00000E-01-2.00000E+01 0.00000E+00
 -1        12 0.00000E+00-2.00000E+01 0.00000E+00
 -1        13-8.00000E-01-2.00000E+01 0.00000E+00
 -1        14-1.60000E+00-2.00000E+01 0.00000E+00
 -1        15-2.40000E+00-2.00000E+01 0.00000E+00
 -1        16-3.20000E+00-2.00000E+01 0.00000E+00
 -1        17-4.00000E+00-2.00000E+01 0.00000E+00
 -1        18-4.80000E+00-2.00000E+01 0.00000E+00
 -1        19-6.00000E+00-2.00000E+01 0.00000E+00
 -1        20-6.80000E+00-2.00000E+01 0.00000E+00
 -1        21-7.60000E+00-2.00000E+01 0.00000E+00
 -1        22-8.40000E+00-2.00000E+01 0.00000E+00
 -1        23-9.20000E+00-2.00000E+01 0.00000E+00
 -1        24 1.00000E+01-2.00000E+01 0.00000E+00
 -1        25-1.00000E+01-2.00000E+01 0.00000E+00
 -1        26-1.00000E+01-1.92000E+01 0.00000E+00
 -1        27-1.00000E+01-1.84000E+01 0.00000E+00
 -1        28-1.00000E+01-1.76000E+01 0.00000E+00
 -1        29-1.00000E+01-1.68000E+01 0.00000E+00
 -1        30-1.00000E+01-1.60000E+01 0.00000E+00
 -1        31-1.00000E+01-1.52000E+01 0.00000E+00
 -1        32-1.00000E+01-1.40000E+01 0.00000E+00
 -1        33-1.00000E+01-1.32000E+01 0.00000E+00
 -1        34-1.00000E+01-1.24000E+01 0.00000E+00
 -1        35-1.00000E+01-1.16000E+01 0.00000E+00
 -1        36-1.00000E+01-1.08000E+01 0.00000E+00
 -1        37-1.00000E+01-1.00000E+01 0.00000E+00
 -1        38-1.00000E+01-9.20000E+00 0.00000E+00
 -1        39-1.00000E+01-8.40000E+00 0.00000E+00
 -1        40-1.00000E+01-7.60000E+00 0.00000E+00
 -1        41-1.00000E+01-6.80000E+00 0.00000E+00
 -1        42-1.00000E+01-6.00000E+00 0.00000E+00
 -1        43-1.00000E+01-5.20000E+00 0.00000E+00
 -1        44-1.00000E+01-4.00000E+00 0.00000E+00
 -1        45-1.00000E+01-3.20000E+00 0.00000E+00
 -1        46-1.00000E+01-2.40000E+00 0.00000E+00
 -1        47-1.00000E+01-1.60000E+00 0.00000E+00
 -1        48-1.00000E+01-8.00000E-01 0.00000E+00
 -1        49-1.00000E+01 0.00000E+00 0.00000E+00
 -1        50-1.08000E+01 0.00000E+00 0.00000E+00
 -1        51-1.16000E+01 0.00000E+00 0.00000E+00
 -1        52-1.24000E+01 0.00000E+00 0.00000E+00
 -1        53-1.32000E+01 0.00000E+00 0.00000E+00
 -1        54-1.40000E+01 0.00000E+00 0.00000E+00
 -1        55-1.48000E+01 0.00000E+00 0.00000E+00
 -1        56-1.60000E+01 0.00000E+00 0.00000E+00
 -1        57-1.68000E+01 0.00000E+00 0.00000E+00
 -1        58-1.76000E+01 0.00000E+00 0.00000E+00
 -1        59-1.84000E+01 0.00000E+00 0.00000E+00
 -1        60-1.92000E+01 0.00000E+00 0.00000E+00
 -1        61-2.00000E+01 0.00000E+00 0.00000E+00
 -1        62-2.08000E+01 0.00000E+00 0.00000E+00
 -1        63-2.16000E+01 0.00000E+00 0.00000E+00
 -1        64-2.24000E+01 0.00000E+00 0.00000E+00
 -1        65-2.32000E+01 0.00000E+00 0.00000E+00
 -1        66-2.40000E+01 0.00000E+00 0.00000E+00
 -1        67-2.48000E+01 0.00000E+00 0.00000E+00
 -1        68-2.60000E+01 0.00000E+00 0.00000E+00
 -1        69-2.68000E+01 0.00000E+00 0.00000E+00
 -1        70-2.76000E+01 0.00000E+00 0.00000E+00
 -1        71-2.84000E+01 0.00000E+00 0.00000E+00
 -1        72-2.92000E+01 0.00000E+00 0.00000E+00
 -1        73-3.00000E+01 0.00000E+00 0.00000E+00
 -1        74-3.00000E+01 8.00000E-01 0.00000E+00
 -1        75-3.00000E+01 1.60000E+00 0.00000E+00
 -1        76-3.00000E+01 2.40000E+00 0.00000E+00
 -1        77-3.00000E+01 3.20000E+00 0.00000E+00
 -1        78-3.00000E+01 4.00000E+00 0.00000E+00
 -1        79-3.00000E+01 4.80000E+00 0.00000E+00
 -1        80-3.00000E+01 6.00000E+00 0.00000E+00
 -1        81-3.00000E+01 6.80000E+00 0.00000E+00
 -1        82-3.00000E+01 7.60000E+00 0.00000E+00
 -1        83-3.00000E+01 8.40000E+00 0.00000E+00
 -1        84-3.00000E+01 9.20000E+00 0.00000E+00
 -1        85-3.00000E+01 1.00000E+01 0.00000E+00
 -1        86-3.00000E+01 1.08000E+01 0.00000E+00
 -1        87-3.00000E+01 1.16000E+01 0.00000E+00
 -1        88-3.00000E+01 1.24000E+01 0.00000E+00
 -1        89-3.00000E+01 1.32000E+01 0.00000E+00
 -1        90-3.00000E+01 1.40000E+01 0.00000E+00
 -1        91-3.00000E+01 1.48000E+01 0.00000E+00
 -1        92-3.00000E+01 1.60000E+01 0.00000E+00
 -1        93-3.00000E+01 1.68000E+01 0.00000E+00
 -1        94-3.00000E+01 1.76000E+01 0.00000E+00
 -1        95-3.00000E+01 1.84000E+01 0.00000E+00
 -1        96-3.00000E+01 1.92000E+01 0.00000E+00
 -1        97-3.00000E+01 2.00000E+01 0.00000E+00
 -1        98-2.92000E+01 2.00000E+01 0.00000E+00
 -1        99-2.84000E+01 2.00000E+01 0.00000E+00
 -1       100-2.76000E+01 2.00000E+01 0.00000E+00
 -1       101-2.68000E+01 2.00000E+01 0.00000E+00
 -1       102-2.60000E+01 2.00000E+01 0.00000E+00
 -1       103-2.52000E+01 2.00000E+01 0.00000E+00
 -1       104-2.40000E+01 2.00000E+01 0.00000E+00
 -1       105-2.32000E+01 2.00000E+01 0.00000E+00
 -1       106-2.24000E+01 2.00000E+01 0.00000E+00
 -1       107-2.16000E+01 2.00000E+01 0.00000E+00
 -1       108-2.08000E+01 2.00000E+01 0.00000E+00
 -1       109-2.00000E+01 2.00000E+01 0.00000E+00
 -1       110-1.92000E+01 2.00000E+01 0.00000E+00
 -1       111-1.84000E+01 2.00000E+01 0.00000E+00
 -1       112-1.76000E+01 2.00000E+01 0.00000E+00
 -1       113-1.68000E+01 2.00000E+01 0.00000E+00
 -1       114-1.60000E+01 2.00000E+01 0.00000E+00
 -1       115-1.52000E+01 2.00000E+01 0.00000E+00
 -1       116-1.40000E+01 2.00000E+01 0.00000E+00
 -1       117-1.32000E+01 2.00000E+01 0.00000E+00
 -1       118-1.24000E+01 2.00000E+01 0.00000E+00
 -1       119-1.16000E+01 2.00000E+01 0.00000E+00
 -1       120-1.08000E+01 2.00000E+01 0.00000E+00
 -1       121-1.00000E+01 2.00000E+01 0.00000E+00
 -1       122-9.20000E+00 2.00000E+01 0.00000E+00
 -1       123-8.40000E+00 2.00000E+01 0.00000E+00
 -1       124-7.60000E+00 2.00000E+01 0.00000E+00
 -1       125-6.80000E+00 2.00000E+01 0.00000E+00
 -1       126-6.00000E+00 2.00000E+01 0.00000E+00
 -1       127-5.20000E+00 2.00000E+01 0.00000E+00
 -1       128-4.00000E+00 2.00000E+01 0.00000E+00
 -1       129-3.20000E+00 2.00000E+01 0.00000E+00
 -1       130-2.40000E+00 2.00000E+01 0.00000E+00
 -1       131-1.60000E+00 2.00000E+01 0.00000E+00
 -1       132-8.00000E-01 2.00000E+01 0.00000E+00
 -1       133 0.00000E+00 2.00000E+01 0.00000E+00
 -1       134 8.00000E-01 2.00000E+01 0.00000E+00
 -1       135 1.60000E+00 2.00000E+01 0.00000E+00
 -1       136 2.40000E+00 2.00000E+01 0.00000E+00
 -1       137 3.20000E+00 2.00000E+01 0.00000E+00
 -1       138 4.00000E+00 2.00000E+01 0.00000E+00
 -1       139 4.80000E+00 2.00000E+01 0.00000E+00
 -1       140 6.00000E+00 2.00000E+01 0.00000E+00
 -1       141 6.80000E+00 2.00000E+01 0.00000E+00
 -1       142 7.60000E+00 2.00000E+01 0.00000E+00
 -1       143 8.40000E+00 2.00000E+01 0.00000E+00
 -1       144 9.20000E+00 2.00000E+01 0.00000E+00
 -1       145 1.00000E+01 2.00000E+01 0.00000E+00
 -1       146 1.08000E+01 2.00000E+01 0.00000E+00
 -1       147 1.16000E+01 2.00000E+01 0.00000E+00
 -1       148 1.24000E+01 2.00000E+01 0.00000E+00
 -1       149 1.32000E+01 2.00000E+01 0.00000E+00
 -1       150 1.40000E+01 2.00000E+01 0.00000E+00
 -1       151 1.48000E+01 2.00000E+01 0.00000E+00
 -1       152 1.60000E+01 2.00000E+01 0.00000E+00
 -1       153 1.68000E+01 2.00000E+01 0.00000E+00
 -1       154 1.76000E+01 2.00000E+01 0.00000E+00
 -1       155 1.84000E+01 2.00000E+01 0.00000E+00
 -1       156 1.92000E+01 2.00000E+01 0.00000E+00
 -1       157 2.00000E+01 2.00000E+01 0.00000E+00
 -1       158 2.08000E+01 2.00000E+01 0.00000E+00
 -1       159 2.16000E+01 2.00000E+01 0.00000E+00
 -1       160 2.24000E+01 2.00000E+01 0.00000E+00
 -1       161 2.32000E+01 2.00000E+01 0.00000E+00
 -1       162 2.40000E+01 2.00000E+01 0.00000E+00
 -1       163 2.48000E+01 2.00000E+01 0.00000E+00
 -1       164 2.60000E+01 2.00000E+01 0.00000E+00
 -1       165 2.68000E+01 2.00000E+01 0.00000E+00
 -1       166 2.76000E+01 2.00000E+01 0.00000E+00
 -1       167 2.84000E+01 2.00000E+01 0.00000E+00
 -1       168 2.92000E+01 2.00000E+01 0.00000E+00
 -1       169 3.00000E+01 2.00000E+01 0.00000E+00
 -1       170 3.00000E+01 1.92000E+01 0.00000E+00
 -1       171 3.00000E+01 1.84000E+01 0.00000E+00
 -1       172 3.00000E+01 1.76000E+01 0.00000E+00
 -1       173 3.00000E+01 1.68000E+01 0.00000E+00
 -1       174 3.00000E+01 1.60000E+01 0.00000E+00
 -1       175 3.00000E+01 1.52000E+01 0.00000E+00
 -1       176 3.00000E+01 1.40000E+01 0.00000E+00
 -1       177 3.00000E+01 1.32000E+01 0.00000E+00
 -1       178 3.00000E+01 1.24000E+01 0.00000E+00
 -1       179 3.00000E+01 1.16000E+01 0.00000E+00
 -1       180 3.00000E+01 1.08000E+01 0.00000E+00
 -1       181 3.00000E+01 1.00000E+01 0.00000E+00
 -1       182 3.00000E+01 9.20000E+00 0.00000E+00
 -1       183 3.00000E+01 8.40000E+00 0.00000E+00
 -1       184 3.00000E+01 7.60000E+00 0.00000E+00
 -1       185 3.00000E+01 6.80000E+00 0.00000E+00
 -1       186 3.00000E+01 6.00000E+00 0.00000E+00
 -1       187 3.00000E+01 5.20000E+00 0.00000E+00
 -1       188 3.00000E+01 4.00000E+00 0.00000E+00
 -1       189 3.00000E+01 3.20000E+00 0.00000E+00
 -1       190 3.00000E+01 2.40000E+00 0.00000E+00
 -1       191 3.00000E+01 1.60000E+00 0.00000E+00
 -1       192 3.00000E+01 8.00000E-01 0.00000E+00
 -1       193 3.00000E+01 0.00000E+00 0.00000E+00
 -1       194 2.92000E+01 0.00000E+00 0.00000E+00
 -1       195 2.84000E+01 0.00000E+00 0.00000E+00
 -1       196 2.76000E+01 0.00000E+00 0.00000E+00
 -1       197 2.68000E+01 0.00000E+00 0.00000E+00
 -1       198 2.60000E+01 0.00000E+00 0.00000E+00
 -1       199 2.52000E+01 0.00000E+00 0.00000E+00
 -1       200 2.40000E+01 0.00000E+00 0.00000E+00
 -1       201 2.32000E+01 0.00000E+00 0.00000E+00
 -1       202 2.24000E+01 0.00000E+00 0.00000E+00
 -1       203 2.16000E+01 0.00000E+00 0.00000E+00
 -1       204 2.08000E+01 0.00000E+00 0.00000E+00
 -1       205 2.00000E+01 0.00000E+00 0.00000E+00
 -1       206 1.92000E+01 0.00000E+00 0.00000E+00
 -1       207 1.84000E+01 0.00000E+00 0.00000E+00
 -1       208 1.76000E+01 0.00000E+00 0.00000E+00
 -1       209 1.68000E+01 0.00000E+00 0.00000E+00
 -1       210 1.60000E+01 0.00000E+00 0.00000E+00
 -1       211 1.52000E+01 0.00000E+00 0.00000E+00
 -1       212 1.40000E+01 0.00000E+00 0.00000E+00
 -1       213 1.32000E+01 0.00000E+00 0.00000E+00
 -1       214 1.24000E+01 0.00000E+00 0.00000E+00
 -1       215 1.16000E+01 0.00000E+00 0.00000E+00
 -1       216 1.08000E+01 0.00000E+00 0.00000E+00
 -1       217 1.00000E+01 0.00000E+00 0.00000E+00
 -1       218 1.00000E+01-8.00000E-01 0.00000E+00
 -1       219 1.00000E+01-1.60000E+00 0.00000E+00
 -1       220 1.00000E+01-2.40000E+00 0.00000E+00
 -1       221 1.00000E+01-3.20000E+00 0.00000E+00
 -1       222 1.00000E+01-4.00000E+00 0.00000E+00
 -1       223 1.00000E+01-4.80000E+00 0.00000E+00
 -1       224 1.00000E+01-6.00000E+00 0.00000E+00
 -1       225 1.00000E+01-6.80000E+00 0.00000E+00
 -1       226 1.00000E+01-7.60000E+00 0.00000E+00
 -1       227 1.00000E+01-8.40000E+00 0.00000E+00
 -1       228 1.00000E+01-9.20000E+00 0.00000E+00
 -1       229 1.00000E+01-1.00000E+01 0.00000E+00
 -1       230 1.00000E+01-1.08000E+01 0.00000E+00
 -1       231 1.00000E+01-1.16000E+01 0.00000E+00
 -1       232 1.00000E+01-1.24000E+01 0.00000E+00
 -1       233 1.00000E+01-1.32000E+01 0.00000E+00
 -1       234 1.00000E+01-1.40000E+01 0.00000E+00
 -1       235 1.00000E+01-1.48000E+01 0.00000E+00
 -1       236 1.00000E+01-1.60000E+01 0.00000E+00
 -1       237 1.00000E+01-1.68000E+01 0.00000E+00
 -1       238 1.00000E+01-1.76000E+01 0.00000E+00
 -1       239 1.00000E+01-1.84000E+01 0.00000E+00
 -1       240 1.00000E+01-1.92000E+01 0.00000E+00
 -1       241-9.54238E+00-1.91925E+01 0.00000E+00
 -1       242-8.72207E+00-1.92678E+01 0.00000E+00
 -1       243-7.95412E+00-1.92567E+01 0.00000E+00
 -1       244-7.17437E+00-1.92341E+01 0.00000E+00
 -1       245-6.38425E+00-1.92292E+01 0.00000E+00
 -1       246-5.61114E+00-1.92330E+01 0.00000E+00
 -1       247-4.85341E+00-1.92805E+01 0.00000E+00
 -1       248-3.80645E+00-1.90117E+01 0.00000E+00
 -1       249-2.65881E+00-1.92470E+01 0.00000E+00
 -1       250-1.91989E+00-1.92783E+01 0.00000E+00
 -1       251-1.15027E+00-1.92733E+01 0.00000E+00
 -1       252-3.76970E-01-1.92524E+01 0.00000E+00
 -1       253 4.06252E-01-1.92194E+01 0.00000E+00
 -1       254 1.21537E+00-1.91892E+01 0.00000E+00
 -1       255 1.98220E+00-1.92890E+01 0.00000E+00
 -1       256 2.71521E+00-1.92970E+01 0.00000E+00
 -1       257 3.76098E+00-1.90203E+01 0.00000E+00
 -1       258 4.93906E+00-1.92367E+01 0.00000E+00
 -1       259 5.67430E+00-1.92952E+01 0.00000E+00
 -1       260 6.42380E+00-1.93241E+01 0.00000E+00
 -1       261 7.17482E+00-1.93398E+01 0.00000E+00
 -1       262 7.92505E+00-1.93468E+01 0.00000E+00
 -1       263 8.69813E+00-1.93143E+01 0.00000E+00
 -1       264 9.53628E+00-1.91974E+01 0.00000E+00
 -1       265-9.57998E+00-1.83247E+01 0.00000E+00
 -1       266-8.83708E+00-1.81950E+01 0.00000E+00
 -1       267-8.03474E+00-1.84280E+01 0.00000E+00
 -1       268-7.15242E+00-1.84438E+01 0.00000E+00
 -1       269-6.38019E+00-1.84238E+01 0.00000E+00
 -1       270-5.37757E+00-1.85978E+01 0.00000E+00
 -1       271-4.80280E+00-1.83457E+01 0.00000E+00
 -1       272-3.67589E+00-1.84224E+01 0.00000E+00
 -1       273-2.86100E+00-1.85108E+01 0.00000E+00
 -1       274-2.11505E+00-1.81970E+01 0.00000E+00
 -1       275-1.07547E+00-1.82251E+01 0.00000E+00
 -1       276-3.63052E-01-1.85041E+01 0.00000E+00
 -1       277 3.60953E-01-1.84540E+01 0.00000E+00
 -1       278 1.55575E+00-1.83128E+01 0.00000E+00
 -1       279 2.09743E+00-1.86442E+01 0.00000E+00
 -1       280 3.02758E+00-1.82114E+01 0.00000E+00
 -1       281 3.87793E+00-1.84845E+01 0.00000E+00
 -1       282 4.72610E+00-1.83849E+01 0.00000E+00
 -1       283 5.22063E+00-1.81473E+01 0.00000E+00
 -1       284 6.18224E+00-1.83161E+01 0.00000E+00
 -1       285 7.13724E+00-1.83200E+01 0.00000E+00
 -1       286 8.18858E+00-1.83683E+01 0.00000E+00
 -1       287 8.81579E+00-1.82619E+01 0.00000E+00
 -1       288 9.56756E+00-1.83104E+01 0.00000E+00
 -1       289-9.62290E+00-1.75618E+01 0.00000E+00
 -1       290-8.84663E+00-1.74782E+01 0.00000E+00
 -1       291-8.10632E+00-1.76057E+01 0.00000E+00
 -1       292-7.11957E+00-1.72608E+01 0.00000E+00
 -1       293-6.37777E+00-1.76137E+01 0.00000E+00
 -1       294-5.61935E+00-1.76081E+01 0.00000E+00
 -1       295-4.81400E+00-1.72865E+01 0.00000E+00
 -1       296-3.94745E+00-1.75503E+01 0.00000E+00
 -1       297-2.90598E+00-1.72470E+01 0.00000E+00
 -1       298-1.90539E+00-1.74879E+01 0.00000E+00
 -1       299-1.45349E+00-1.72810E+01 0.00000E+00
 -1       300-4.20911E-01-1.76713E+01 0.00000E+00
 -1       301 3.65460E-01-1.76220E+01 0.00000E+00
 -1       302 1.34588E+00-1.75500E+01 0.00000E+00
 -1       303 2.25558E+00-1.74376E+01 0.00000E+00
 -1       304 3.06863E+00-1.74823E+01 0.00000E+00
 -1       305 3.75452E+00-1.76992E+01 0.00000E+00
 -1       306 4.55714E+00-1.74541E+01 0.00000E+00
 -1       307 5.40300E+00-1.74648E+01 0.00000E+00
 -1       308 6.31586E+00-1.72780E+01 0.00000E+00
 -1       309 7.10418E+00-1.74843E+01 0.00000E+00
 -1       310 7.89352E+00-1.76057E+01 0.00000E+00
 -1       311 8.77534E+00-1.73967E+01 0.00000E+00
 -1       312 9.61193E+00-1.75353E+01 0.00000E+00
 -1       313-9.64677E+00-1.67888E+01 0.00000E+00
 -1       314-8.92739E+00-1.67503E+01 0.00000E+00
 -1       315-8.24441E+00-1.66949E+01 0.00000E+00
 -1       316-7.21267E+00-1.64717E+01 0.00000E+00
 -1       317-6.40869E+00-1.67873E+01 0.00000E+00
 -1       318-5.60638E+00-1.67888E+01 0.00000E+00
 -1       319-4.79716E+00-1.63810E+01 0.00000E+00
 -1       320-3.98961E+00-1.64352E+01 0.00000E+00
 -1       321-2.75679E+00-1.65104E+01 0.00000E+00
 -1       322-1.96449E+00-1.64799E+01 0.00000E+00
 -1       323-1.09977E+00-1.65904E+01 0.00000E+00
 -1       324-5.45265E-01-1.68160E+01 0.00000E+00
 -1       325 4.93968E-01-1.65552E+01 0.00000E+00
 -1       326 1.47712E+00-1.67179E+01 0.00000E+00
 -1       327 2.04102E+00-1.66033E+01 0.00000E+00
 -1       328 2.97158E+00-1.67381E+01 0.00000E+00
 -1       329 3.64653E+00-1.66678E+01 0.00000E+00
 -1       330 4.78280E+00-1.65744E+01 0.00000E+00
 -1       331 5.51896E+00-1.67071E+01 0.00000E+00
 -1       332 6.53050E+00-1.65586E+01 0.00000E+00
 -1       333 7.22694E+00-1.67533E+01 0.00000E+00
 -1       334 7.94593E+00-1.68551E+01 0.00000E+00
 -1       335 8.82538E+00-1.66211E+01 0.00000E+00
 -1       336 9.62980E+00-1.67571E+01 0.00000E+00
 -1       337-9.66088E+00-1.60110E+01 0.00000E+00
 -1       338-8.97792E+00-1.56727E+01 0.00000E+00
 -1       339-7.99999E+00-1.58078E+01 0.00000E+00
 -1       340-7.27246E+00-1.56059E+01 0.00000E+00
 -1       341-6.50457E+00-1.59209E+01 0.00000E+00
 -1       342-5.65456E+00-1.58124E+01 0.00000E+00
 -1       343-4.59843E+00-1.56043E+01 0.00000E+00
 -1       344-3.65694E+00-1.58161E+01 0.00000E+00
 -1       345-3.14517E+00-1.59180E+01 0.00000E+00
 -1       346-2.28434E+00-1.58851E+01 0.00000E+00
 -1       347-1.16894E+00-1.56254E+01 0.00000E+00
 -1       348-3.74330E-01-1.59378E+01 0.00000E+00
 -1       349 4.56747E-01-1.56215E+01 0.00000E+00
 -1       350 1.40641E+00-1.56935E+01 0.00000E+00
 -1       351 2.05074E+00-1.57793E+01 0.00000E+00
 -1       352 2.90578E+00-1.58278E+01 0.00000E+00
 -1       353 3.63378E+00-1.55854E+01 0.00000E+00
 -1       354 4.81520E+00-1.54815E+01 0.00000E+00
 -1       355 5.41312E+00-1.57383E+01 0.00000E+00
 -1       356 6.21105E+00-1.58004E+01 0.00000E+00
 -1       357 7.04897E+00-1.59124E+01 0.00000E+00
 -1       358 7.63462E+00-1.58532E+01 0.00000E+00
 -1       359 8.92554E+00-1.55159E+01 0.00000E+00
 -1       360 9.64644E+00-1.59746E+01 0.00000E+00
 -1       361-9.65831E+00-1.52284E+01 0.00000E+00
 -1       362-8.94479E+00-1.49443E+01 0.00000E+00
 -1       363-7.81506E+00-1.49842E+01 0.00000E+00
 -1       364-6.97340E+00-1.49136E+01 0.00000E+00
 -1       365-6.48715E+00-1.48477E+01 0.00000E+00
 -1       366-5.35537E+00-1.48982E+01 0.00000E+00
 -1       367-4.81181E+00-1.49436E+01 0.00000E+00
 -1       368-3.76162E+00-1.51482E+01 0.00000E+00
 -1       369-3.02041E+00-1.51485E+01 0.00000E+00
 -1       370-2.24232E+00-1.49549E+01 0.00000E+00
 -1       371-1.23442E+00-1.52319E+01 0.00000E+00
 -1       372-2.31133E-01-1.52450E+01 0.00000E+00
 -1       373 4.47166E-01-1.48244E+01 0.00000E+00
 -1       374 1.20440E+00-1.50338E+01 0.00000E+00
 -1       375 1.95059E+00-1.52892E+01 0.00000E+00
 -1       376 2.69300E+00-1.50662E+01 0.00000E+00
 -1       377 3.61448E+00-1.50584E+01 0.00000E+00
 -1       378 4.65492E+00-1.50815E+01 0.00000E+00
 -1       379 5.60361E+00-1.49457E+01 0.00000E+00
 -1       380 6.47989E+00-1.47804E+01 0.00000E+00
 -1       381 7.23332E+00-1.51228E+01 0.00000E+00
 -1       382 8.23110E+00-1.50704E+01 0.00000E+00
 -1       383 8.92411E+00-1.47614E+01 0.00000E+00
 -1       384 9.64787E+00-1.51851E+01 0.00000E+00
 -1       385-9.63501E+00-1.44381E+01 0.00000E+00
 -1       386-8.83298E+00-1.41902E+01 0.00000E+00
 -1       387-6.88428E+00-1.42994E+01 0.00000E+00
 -1       388-6.36403E+00-1.40630E+01 0.00000E+00
 -1       389-5.65258E+00-1.42842E+01 0.00000E+00
 -1       390-4.80428E+00-1.41834E+01 0.00000E+00
 -1       391-3.73858E+00-1.41538E+01 0.00000E+00
 -1       392-2.95325E+00-1.41467E+01 0.00000E+00
 -1       393-2.21927E+00-1.40182E+01 0.00000E+00
 -1       394-1.36267E+00-1.39332E+01 0.00000E+00
 -1       395-4.61890E-01-1.39693E+01 0.00000E+00
 -1       396 3.75405E-01-1.42443E+01 0.00000E+00
 -1       397 1.10632E+00-1.42566E+01 0.00000E+00
 -1       398 2.02711E+00-1.42650E+01 0.00000E+00
 -1       399 2.89353E+00-1.41711E+01 0.00000E+00
 -1       400 3.77024E+00-1.42097E+01 0.00000E+00
 -1       401 4.76828E+00-1.39601E+01 0.00000E+00
 -1       402 6.31757E+00-1.42499E+01 0.00000E+00
 -1       403 7.26034E+00-1.40566E+01 0.00000E+00
 -1       404 8.13582E+00-1.40308E+01 0.00000E+00
 -1       405 8.88516E+00-1.40096E+01 0.00000E+00
 -1       406 9.63640E+00-1.43953E+01 0.00000E+00
 -1       407-9.59062E+00-1.36327E+01 0.00000E+00
 -1       408-8.56659E+00-1.33038E+01 0.00000E+00
 -1       409-7.79778E+00-1.33623E+01 0.00000E+00
 -1       410-7.04084E+00-1.33796E+01 0.00000E+00
 -1       411-6.18673E+00-1.34593E+01 0.00000E+00
 -1       412-5.51943E+00-1.31279E+01 0.00000E+00
 -1       413-4.71581E+00-1.35143E+01 0.00000E+00
 -1       414-3.95046E+00-1.32682E+01 0.00000E+00
 -1       415-2.75171E+00-1.34268E+01 0.00000E+00
 -1       416-1.93714E+00-1.32791E+01 0.00000E+00
 -1       417-1.21804E+00-1.32648E+01 0.00000E+00
 -1       418-2.29581E-01-1.31684E+01 0.00000E+00
 -1       419 4.52869E-01-1.33379E+01 0.00000E+00
 -1       420 1.25541E+00-1.34100E+01 0.00000E+00
 -1       421 2.06403E+00-1.34668E+01 0.00000E+00
 -1       422 2.86321E+00-1.33227E+01 0.00000E+00
 -1       423 3.77943E+00-1.33194E+01 0.00000E+00
 -1       424 4.82697E+00-1.32344E+01 0.00000E+00
 -1       425 5.59839E+00-1.32686E+01 0.00000E+00
 -1       426 6.31757E+00-1.34760E+01 0.00000E+00
 -1       427 7.20185E+00-1.34800E+01 0.00000E+00
 -1       428 8.09738E+00-1.33384E+01 0.00000E+00
 -1       429 8.83671E+00-1.32675E+01 0.00000E+00
 -1       430 9.62319E+00-1.36089E+01 0.00000E+00
 -1       431-9.57659E+00-1.28175E+01 0.00000E+00
 -1       432-8.78977E+00-1.23468E+01 0.00000E+00
 -1       433-7.95511E+00-1.25140E+01 0.00000E+00
 -1       434-6.79997E+00-1.23844E+01 0.00000E+00
 -1       435-6.24303E+00-1.23086E+01 0.00000E+00
 -1       436-5.35394E+00-1.23493E+01 0.00000E+00
 -1       437-4.43853E+00-1.24845E+01 0.00000E+00
 -1       438-3.66590E+00-1.24218E+01 0.00000E+00
 -1       439-2.92632E+00-1.27021E+01 0.00000E+00
 -1       440-2.15926E+00-1.26094E+01 0.00000E+00
 -1       441-1.32260E+00-1.24310E+01 0.00000E+00
 -1       442-3.62143E-01-1.24282E+01 0.00000E+00
 -1       443 4.78370E-01-1.24735E+01 0.00000E+00
 -1       444 1.12689E+00-1.24132E+01 0.00000E+00
 -1       445 2.16852E+00-1.27342E+01 0.00000E+00
 -1       446 2.96877E+00-1.26634E+01 0.00000E+00
 -1       447 3.72357E+00-1.24911E+01 0.00000E+00
 -1       448 4.23215E+00-1.26773E+01 0.00000E+00
 -1       449 5.56642E+00-1.24657E+01 0.00000E+00
 -1       450 6.26727E+00-1.26718E+01 0.00000E+00
 -1       451 7.20564E+00-1.26180E+01 0.00000E+00
 -1       452 7.76975E+00-1.23907E+01 0.00000E+00
 -1       453 8.74253E+00-1.24839E+01 0.00000E+00
 -1       454 9.60591E+00-1.28197E+01 0.00000E+00
 -1       455-9.59943E+00-1.19932E+01 0.00000E+00
 -1       456-8.84484E+00-1.15417E+01 0.00000E+00
 -1       457-8.08115E+00-1.18290E+01 0.00000E+00
 -1       458-7.27630E+00-1.17901E+01 0.00000E+00
 -1       459-6.45266E+00-1.16380E+01 0.00000E+00
 -1       460-5.52009E+00-1.14869E+01 0.00000E+00
 -1       461-4.41916E+00-1.16769E+01 0.00000E+00
 -1       462-3.64552E+00-1.17098E+01 0.00000E+00
 -1       463-2.91368E+00-1.17452E+01 0.00000E+00
 -1       464-1.40940E+00-1.16997E+01 0.00000E+00
 -1       465-2.27153E-01-1.18540E+01 0.00000E+00
 -1       466 4.43480E-01-1.17017E+01 0.00000E+00
 -1       467 1.10470E+00-1.15382E+01 0.00000E+00
 -1       468 2.06690E+00-1.17531E+01 0.00000E+00
 -1       469 2.78447E+00-1.17406E+01 0.00000E+00
 -1       470 3.74850E+00-1.16302E+01 0.00000E+00
 -1       471 4.72488E+00-1.16998E+01 0.00000E+00
 -1       472 5.42996E+00-1.17382E+01 0.00000E+00
 -1       473 6.37958E+00-1.16735E+01 0.00000E+00
 -1       474 7.19457E+00-1.15691E+01 0.00000E+00
 -1       475 7.92727E+00-1.16256E+01 0.00000E+00
 -1       476 8.75973E+00-1.16496E+01 0.00000E+00
 -1       477 9.59443E+00-1.16232E+01 0.00000E+00
 -1       478-9.60676E+00-1.07853E+01 0.00000E+00
 -1       479-8.83251E+00-1.07646E+01 0.00000E+00
 -1       480-8.07490E+00-1.07481E+01 0.00000E+00
 -1       481-7.33601E+00-1.07048E+01 0.00000E+00
 -1       482-6.34825E+00-1.08670E+01 0.00000E+00
 -1       483-5.53056E+00-1.07846E+01 0.00000E+00
 -1       484-4.65555E+00-1.08198E+01 0.00000E+00
 -1       485-3.91244E+00-1.09811E+01 0.00000E+00
 -1       486-2.78197E+00-1.07118E+01 0.00000E+00
 -1       487-2.07054E+00-1.08550E+01 0.00000E+00
 -1       488-1.36133E+00-1.10065E+01 0.00000E+00
 -1       489-3.17588E-01-1.12931E+01 0.00000E+00
 -1       490 5.13625E-01-1.10382E+01 0.00000E+00
 -1       491 1.20367E+00-1.08271E+01 0.00000E+00
 -1       492 1.99304E+00-1.08865E+01 0.00000E+00
 -1       493 2.68662E+00-1.06929E+01 0.00000E+00
 -1       494 3.55585E+00-1.07219E+01 0.00000E+00
 -1       495 4.56812E+00-1.07472E+01 0.00000E+00
 -1       496 5.37743E+00-1.08021E+01 0.00000E+00
 -1       497 6.04577E+00-1.08056E+01 0.00000E+00
 -1       498 7.12028E+00-1.06367E+01 0.00000E+00
 -1       499 7.82882E+00-1.07492E+01 0.00000E+00
 -1       500 8.79321E+00-1.08226E+01 0.00000E+00
 -1       501 9.60744E+00-1.08175E+01 0.00000E+00
 -1       502-9.59402E+00-9.98796E+00 0.00000E+00
 -1       503-8.79144E+00-9.98202E+00 0.00000E+00
 -1       504-8.02890E+00-1.00002E+01 0.00000E+00
 -1       505-7.34542E+00-1.00380E+01 0.00000E+00
 -1       506-6.26266E+00-9.78818E+00 0.00000E+00
 -1       507-5.34692E+00-9.92319E+00 0.00000E+00
 -1       508-4.69516E+00-9.77826E+00 0.00000E+00
 -1       509-3.87221E+00-9.91612E+00 0.00000E+00
 -1       510-3.08148E+00-1.00035E+01 0.00000E+00
 -1       511-2.45898E+00-9.56445E+00 0.00000E+00
 -1       512-1.19697E+00-9.92210E+00 0.00000E+00
 -1       513-2.12072E-01-9.82452E+00 0.00000E+00
 -1       514 3.46998E-01-9.99206E+00 0.00000E+00
 -1       515 1.34575E+00-1.00852E+01 0.00000E+00
 -1       516 2.02557E+00-9.96776E+00 0.00000E+00
 -1       517 2.87649E+00-1.00602E+01 0.00000E+00
 -1       518 3.85487E+00-1.00648E+01 0.00000E+00
 -1       519 4.66325E+00-9.92172E+00 0.00000E+00
 -1       520 5.43081E+00-1.00923E+01 0.00000E+00
 -1       521 6.24683E+00-9.97947E+00 0.00000E+00
 -1       522 7.05378E+00-9.76671E+00 0.00000E+00
 -1       523 8.10386E+00-9.94717E+00 0.00000E+00
 -1       524 8.85607E+00-1.00296E+01 0.00000E+00
 -1       525 9.62547E+00-1.00210E+01 0.00000E+00
 -1       526-9.58138E+00-9.18810E+00 0.00000E+00
 -1       527-8.75564E+00-9.18045E+00 0.00000E+00
 -1       528-7.95687E+00-9.19713E+00 0.00000E+00
 -1       529-6.20288E+00-9.06689E+00 0.00000E+00
 -1       530-4.71589E+00-9.10777E+00 0.00000E+00
 -1       531-3.97398E+00-9.17438E+00 0.00000E+00
 -1       532-3.15535E+00-8.93001E+00 0.00000E+00
 -1       533-2.42679E+00-9.05172E+00 0.00000E+00
 -1       534-1.07908E+00-9.17723E+00 0.00000E+00
 -1       535-2.49720E-01-8.82413E+00 0.00000E+00
 -1       536 3.55953E-01-9.03409E+00 0.00000E+00
 -1       537 1.15788E+00-8.98899E+00 0.00000E+00
 -1       538 2.30146E+00-9.34176E+00 0.00000E+00
 -1       539 3.16609E+00-9.34551E+00 0.00000E+00
 -1       540 3.74527E+00-9.18512E+00 0.00000E+00
 -1       541 4.57494E+00-9.04295E+00 0.00000E+00
 -1       542 5.50273E+00-9.22930E+00 0.00000E+00
 -1       543 6.39244E+00-9.29647E+00 0.00000E+00
 -1       544 7.07982E+00-9.25282E+00 0.00000E+00
 -1       545 7.80187E+00-9.20126E+00 0.00000E+00
 -1       546 8.89236E+00-8.86079E+00 0.00000E+00
 -1       547 9.63182E+00-9.22411E+00 0.00000E+00
 -1       548-9.58015E+00-8.38369E+00 0.00000E+00
 -1       549-8.74334E+00-8.36034E+00 0.00000E+00
 -1       550-7.97213E+00-8.40874E+00 0.00000E+00
 -1       551-7.24904E+00-8.39065E+00 0.00000E+00
 -1       552-6.22620E+00-8.23607E+00 0.00000E+00
 -1       553-5.41458E+00-8.32318E+00 0.00000E+00
 -1       554-4.32257E+00-8.51233E+00 0.00000E+00
 -1       555-3.65155E+00-8.61948E+00 0.00000E+00
 -1       556-3.04557E+00-8.37184E+00 0.00000E+00
 -1       557-2.11132E+00-8.29810E+00 0.00000E+00
 -1       558-1.10588E+00-8.37786E+00 0.00000E+00
 -1       559-2.34744E-01-8.38620E+00 0.00000E+00
 -1       560 5.00490E-01-8.51743E+00 0.00000E+00
 -1       561 1.24582E+00-8.32443E+00 0.00000E+00
 -1       562 2.14762E+00-8.46315E+00 0.00000E+00
 -1       563 2.69675E+00-8.24854E+00 0.00000E+00
 -1       564 3.73075E+00-8.11070E+00 0.00000E+00
 -1       565 4.54845E+00-8.44566E+00 0.00000E+00
 -1       566 5.50504E+00-8.46224E+00 0.00000E+00
 -1       567 6.28099E+00-8.30329E+00 0.00000E+00
 -1       568 7.00185E+00-8.09911E+00 0.00000E+00
 -1       569 8.11666E+00-8.10618E+00 0.00000E+00
 -1       570 8.86864E+00-8.07283E+00 0.00000E+00
 -1       571 9.62574E+00-8.42439E+00 0.00000E+00
 -1       572-9.59917E+00-7.58236E+00 0.00000E+00
 -1       573-8.74737E+00-7.51590E+00 0.00000E+00
 -1       574-7.78982E+00-7.66244E+00 0.00000E+00
 -1       575-6.88077E+00-7.76306E+00 0.00000E+00
 -1       576-6.10947E+00-7.52455E+00 0.00000E+00
 -1       577-5.31532E+00-7.69072E+00 0.00000E+00
 -1       578-4.48751E+00-7.59373E+00 0.00000E+00
 -1       579-3.74594E+00-7.39320E+00 0.00000E+00
 -1       580-2.84263E+00-7.62347E+00 0.00000E+00
 -1       581-2.08483E+00-7.79552E+00 0.00000E+00
 -1       582-1.15651E+00-7.57411E+00 0.00000E+00
 -1       583-5.66536E-01-7.38904E+00 0.00000E+00